
Host: connor-briggs-xubuntu-17

Timers On : Wed Feb 20 18:46:38 2019
Timers Off: Wed Feb 20 18:46:38 2019

Wall Time:        0.14 seconds


-----------------------------------------------------------

***********************************************************

Host: connor-briggs-xubuntu-17

Timers On : Wed Feb 20 18:46:55 2019
Timers Off: Wed Feb 20 18:46:56 2019

Wall Time:        0.15 seconds


-----------------------------------------------------------

***********************************************************

Host: connor-briggs-xubuntu-17

Timers On : Wed Feb 20 18:47:26 2019
Timers Off: Wed Feb 20 18:47:26 2019

Wall Time:        0.14 seconds


-----------------------------------------------------------

***********************************************************
